   3   3   0   0
  0.3333333E+03  0.1000000E-08  0.1000000E-08  0.1000000E-08  0.5000000E-15
  1.000000000000000E-004
  CAR 
 unknown system                          
      2.30388704    -32.74853547  301     -9.00268308      1.00000000
    -32.749  0.0000E+00  0.0000E+00
    -32.632  0.0000E+00  0.0000E+00
    -32.515  0.0000E+00  0.0000E+00
    -32.398  0.0000E+00  0.0000E+00
    -32.281  0.0000E+00  0.0000E+00
    -32.164  0.0000E+00  0.0000E+00
    -32.047 -0.1149E-32 -0.1342E-33
    -31.931 -0.2894E-24 -0.3381E-25
    -31.814 -0.4645E-17 -0.5427E-18
    -31.697 -0.4550E-11 -0.5316E-12
    -31.580 -0.2806E-06 -0.3278E-07
    -31.463 -0.1013E-02 -0.1183E-03
    -31.346 -0.1790E+00 -0.2103E-01
    -31.230  0.6223E+00  0.5168E-01
    -31.113  0.1370E+02  0.1652E+01
    -30.996  0.3377E+01  0.2047E+01
    -30.879 -0.3944E+00  0.2001E+01
    -30.762 -0.5691E-02  0.2000E+01
    -30.645 -0.5127E-02  0.1999E+01
    -30.529 -0.3788E+00  0.1955E+01
    -30.412  0.3145E+01  0.2323E+01
    -30.295  0.1380E+02  0.3935E+01
    -30.178  0.7451E+00  0.4022E+01
    -30.061 -0.1901E+00  0.4000E+01
    -29.944 -0.1139E-02  0.4000E+01
    -29.828 -0.3322E-06  0.4000E+01
    -29.711 -0.5659E-11  0.4000E+01
    -29.594  0.0000E+00  0.4000E+01
    -29.477  0.0000E+00  0.4000E+01
    -29.360  0.0000E+00  0.4000E+01
    -29.243  0.0000E+00  0.4000E+01
    -29.126  0.0000E+00  0.4000E+01
    -29.010  0.0000E+00  0.4000E+01
    -28.893  0.0000E+00  0.4000E+01
    -28.776  0.0000E+00  0.4000E+01
    -28.659  0.0000E+00  0.4000E+01
    -28.542  0.0000E+00  0.4000E+01
    -28.425  0.0000E+00  0.4000E+01
    -28.309  0.0000E+00  0.4000E+01
    -28.192  0.0000E+00  0.4000E+01
    -28.075  0.0000E+00  0.4000E+01
    -27.958  0.0000E+00  0.4000E+01
    -27.841  0.0000E+00  0.4000E+01
    -27.724  0.0000E+00  0.4000E+01
    -27.608  0.0000E+00  0.4000E+01
    -27.491  0.0000E+00  0.4000E+01
    -27.374  0.0000E+00  0.4000E+01
    -27.257  0.0000E+00  0.4000E+01
    -27.140  0.0000E+00  0.4000E+01
    -27.023  0.0000E+00  0.4000E+01
    -26.906  0.0000E+00  0.4000E+01
    -26.790  0.0000E+00  0.4000E+01
    -26.673  0.0000E+00  0.4000E+01
    -26.556  0.0000E+00  0.4000E+01
    -26.439  0.0000E+00  0.4000E+01
    -26.322  0.0000E+00  0.4000E+01
    -26.205  0.0000E+00  0.4000E+01
    -26.089  0.0000E+00  0.4000E+01
    -25.972  0.0000E+00  0.4000E+01
    -25.855  0.0000E+00  0.4000E+01
    -25.738  0.0000E+00  0.4000E+01
    -25.621  0.0000E+00  0.4000E+01
    -25.504  0.0000E+00  0.4000E+01
    -25.388  0.0000E+00  0.4000E+01
    -25.271  0.0000E+00  0.4000E+01
    -25.154  0.0000E+00  0.4000E+01
    -25.037  0.0000E+00  0.4000E+01
    -24.920  0.0000E+00  0.4000E+01
    -24.803  0.0000E+00  0.4000E+01
    -24.686  0.0000E+00  0.4000E+01
    -24.570  0.0000E+00  0.4000E+01
    -24.453  0.0000E+00  0.4000E+01
    -24.336  0.0000E+00  0.4000E+01
    -24.219  0.0000E+00  0.4000E+01
    -24.102  0.0000E+00  0.4000E+01
    -23.985  0.0000E+00  0.4000E+01
    -23.869  0.0000E+00  0.4000E+01
    -23.752  0.0000E+00  0.4000E+01
    -23.635  0.0000E+00  0.4000E+01
    -23.518  0.0000E+00  0.4000E+01
    -23.401  0.0000E+00  0.4000E+01
    -23.284  0.0000E+00  0.4000E+01
    -23.168  0.0000E+00  0.4000E+01
    -23.051  0.0000E+00  0.4000E+01
    -22.934  0.0000E+00  0.4000E+01
    -22.817  0.0000E+00  0.4000E+01
    -22.700  0.0000E+00  0.4000E+01
    -22.583  0.0000E+00  0.4000E+01
    -22.466  0.0000E+00  0.4000E+01
    -22.350  0.0000E+00  0.4000E+01
    -22.233  0.0000E+00  0.4000E+01
    -22.116  0.0000E+00  0.4000E+01
    -21.999  0.0000E+00  0.4000E+01
    -21.882  0.0000E+00  0.4000E+01
    -21.765  0.0000E+00  0.4000E+01
    -21.649  0.0000E+00  0.4000E+01
    -21.532  0.0000E+00  0.4000E+01
    -21.415  0.0000E+00  0.4000E+01
    -21.298  0.0000E+00  0.4000E+01
    -21.181  0.0000E+00  0.4000E+01
    -21.064  0.0000E+00  0.4000E+01
    -20.948  0.0000E+00  0.4000E+01
    -20.831  0.0000E+00  0.4000E+01
    -20.714  0.0000E+00  0.4000E+01
    -20.597  0.0000E+00  0.4000E+01
    -20.480  0.0000E+00  0.4000E+01
    -20.363  0.0000E+00  0.4000E+01
    -20.247  0.0000E+00  0.4000E+01
    -20.130  0.0000E+00  0.4000E+01
    -20.013  0.0000E+00  0.4000E+01
    -19.896  0.0000E+00  0.4000E+01
    -19.779  0.0000E+00  0.4000E+01
    -19.662  0.0000E+00  0.4000E+01
    -19.545  0.0000E+00  0.4000E+01
    -19.429  0.0000E+00  0.4000E+01
    -19.312  0.0000E+00  0.4000E+01
    -19.195  0.0000E+00  0.4000E+01
    -19.078  0.0000E+00  0.4000E+01
    -18.961  0.0000E+00  0.4000E+01
    -18.844  0.0000E+00  0.4000E+01
    -18.728  0.0000E+00  0.4000E+01
    -18.611  0.0000E+00  0.4000E+01
    -18.494  0.0000E+00  0.4000E+01
    -18.377  0.0000E+00  0.4000E+01
    -18.260  0.0000E+00  0.4000E+01
    -18.143  0.0000E+00  0.4000E+01
    -18.027  0.0000E+00  0.4000E+01
    -17.910  0.0000E+00  0.4000E+01
    -17.793  0.0000E+00  0.4000E+01
    -17.676  0.0000E+00  0.4000E+01
    -17.559  0.0000E+00  0.4000E+01
    -17.442  0.0000E+00  0.4000E+01
    -17.325  0.0000E+00  0.4000E+01
    -17.209  0.0000E+00  0.4000E+01
    -17.092  0.0000E+00  0.4000E+01
    -16.975  0.0000E+00  0.4000E+01
    -16.858  0.0000E+00  0.4000E+01
    -16.741  0.0000E+00  0.4000E+01
    -16.624  0.0000E+00  0.4000E+01
    -16.508  0.0000E+00  0.4000E+01
    -16.391  0.0000E+00  0.4000E+01
    -16.274  0.0000E+00  0.4000E+01
    -16.157  0.0000E+00  0.4000E+01
    -16.040  0.0000E+00  0.4000E+01
    -15.923  0.0000E+00  0.4000E+01
    -15.807  0.0000E+00  0.4000E+01
    -15.690  0.0000E+00  0.4000E+01
    -15.573  0.0000E+00  0.4000E+01
    -15.456  0.0000E+00  0.4000E+01
    -15.339 -0.7158E-34  0.4000E+01
    -15.222 -0.2843E-25  0.4000E+01
    -15.105 -0.7204E-18  0.4000E+01
    -14.989 -0.1118E-11  0.4000E+01
    -14.872 -0.1097E-06  0.4000E+01
    -14.755 -0.6373E-03  0.4000E+01
    -14.638 -0.1912E+00  0.3978E+01
    -14.521 -0.4003E+00  0.3931E+01
    -14.404  0.2422E+02  0.6761E+01
    -14.288  0.1170E+02  0.8127E+01
    -14.171 -0.1059E+01  0.8003E+01
    -14.054 -0.2904E-01  0.8000E+01
    -13.937 -0.2899E-04  0.8000E+01
    -13.820 -0.1616E-08  0.8000E+01
    -13.703 -0.7602E-14  0.8000E+01
    -13.587 -0.5084E-31  0.8000E+01
    -13.470 -0.7695E-23  0.8000E+01
    -13.353 -0.7411E-16  0.8000E+01
    -13.236 -0.4334E-10  0.8000E+01
    -13.119 -0.1588E-05  0.8000E+01
    -13.002 -0.3350E-02  0.8000E+01
    -12.885 -0.3174E+00  0.7963E+01
    -12.769  0.2295E+01  0.8231E+01
    -12.652  0.1407E+02  0.9874E+01
    -12.535  0.8469E+00  0.9973E+01
    -12.418  0.4207E+01  0.1046E+02
    -12.301  0.1310E+02  0.1200E+02
    -12.184  0.1751E+00  0.1202E+02
    -12.068 -0.1361E+00  0.1200E+02
    -11.951 -0.6033E-03  0.1200E+02
    -11.834 -0.1345E-06  0.1200E+02
    -11.717 -0.1764E-11  0.1200E+02
    -11.600  0.0000E+00  0.1200E+02
    -11.483  0.0000E+00  0.1200E+02
    -11.367  0.0000E+00  0.1200E+02
    -11.250  0.0000E+00  0.1200E+02
    -11.133  0.0000E+00  0.1200E+02
    -11.016  0.0000E+00  0.1200E+02
    -10.899  0.0000E+00  0.1200E+02
    -10.782  0.0000E+00  0.1200E+02
    -10.666  0.0000E+00  0.1200E+02
    -10.549  0.0000E+00  0.1200E+02
    -10.432  0.0000E+00  0.1200E+02
    -10.315  0.0000E+00  0.1200E+02
    -10.198  0.0000E+00  0.1200E+02
    -10.081  0.0000E+00  0.1200E+02
     -9.964 -0.3023E-31  0.1200E+02
     -9.848 -0.5393E-23  0.1200E+02
     -9.731 -0.6126E-16  0.1200E+02
     -9.614 -0.4231E-10  0.1200E+02
     -9.497 -0.1835E-05  0.1200E+02
     -9.380 -0.4605E-02  0.1200E+02
     -9.263 -0.5362E+00  0.1194E+02
     -9.147  0.3325E+01  0.1233E+02
     -9.030  0.2826E+02  0.1563E+02
     -8.913  0.3768E+01  0.1607E+02
     -8.796 -0.5714E+00  0.1600E+02
     -8.679 -0.5289E-02  0.1600E+02
     -8.562 -0.2246E-05  0.1600E+02
     -8.446 -0.5508E-10  0.1600E+02
     -8.329  0.0000E+00  0.1600E+02
     -8.212  0.0000E+00  0.1600E+02
     -8.095  0.0000E+00  0.1600E+02
     -7.978  0.0000E+00  0.1600E+02
     -7.861  0.0000E+00  0.1600E+02
     -7.744  0.0000E+00  0.1600E+02
     -7.628  0.0000E+00  0.1600E+02
     -7.511  0.0000E+00  0.1600E+02
     -7.394  0.0000E+00  0.1600E+02
     -7.277  0.0000E+00  0.1600E+02
     -7.160  0.0000E+00  0.1600E+02
     -7.043  0.0000E+00  0.1600E+02
     -6.927  0.0000E+00  0.1600E+02
     -6.810  0.0000E+00  0.1600E+02
     -6.693  0.0000E+00  0.1600E+02
     -6.576  0.0000E+00  0.1600E+02
     -6.459  0.0000E+00  0.1600E+02
     -6.342  0.0000E+00  0.1600E+02
     -6.226  0.0000E+00  0.1600E+02
     -6.109  0.0000E+00  0.1600E+02
     -5.992  0.0000E+00  0.1600E+02
     -5.875  0.0000E+00  0.1600E+02
     -5.758  0.0000E+00  0.1600E+02
     -5.641  0.0000E+00  0.1600E+02
     -5.524  0.0000E+00  0.1600E+02
     -5.408  0.0000E+00  0.1600E+02
     -5.291  0.0000E+00  0.1600E+02
     -5.174  0.0000E+00  0.1600E+02
     -5.057  0.0000E+00  0.1600E+02
     -4.940  0.0000E+00  0.1600E+02
     -4.823  0.0000E+00  0.1600E+02
     -4.707  0.0000E+00  0.1600E+02
     -4.590  0.0000E+00  0.1600E+02
     -4.473  0.0000E+00  0.1600E+02
     -4.356  0.0000E+00  0.1600E+02
     -4.239  0.0000E+00  0.1600E+02
     -4.122  0.0000E+00  0.1600E+02
     -4.006  0.0000E+00  0.1600E+02
     -3.889  0.0000E+00  0.1600E+02
     -3.772  0.0000E+00  0.1600E+02
     -3.655  0.0000E+00  0.1600E+02
     -3.538  0.0000E+00  0.1600E+02
     -3.421  0.0000E+00  0.1600E+02
     -3.305  0.0000E+00  0.1600E+02
     -3.188  0.0000E+00  0.1600E+02
     -3.071  0.0000E+00  0.1600E+02
     -2.954  0.0000E+00  0.1600E+02
     -2.837  0.0000E+00  0.1600E+02
     -2.720  0.0000E+00  0.1600E+02
     -2.603  0.0000E+00  0.1600E+02
     -2.487  0.0000E+00  0.1600E+02
     -2.370  0.0000E+00  0.1600E+02
     -2.253  0.0000E+00  0.1600E+02
     -2.136  0.0000E+00  0.1600E+02
     -2.019  0.0000E+00  0.1600E+02
     -1.902  0.0000E+00  0.1600E+02
     -1.786 -0.3989E-34  0.1600E+02
     -1.669 -0.1562E-25  0.1600E+02
     -1.552 -0.3903E-18  0.1600E+02
     -1.435 -0.5977E-12  0.1600E+02
     -1.318 -0.5775E-07  0.1600E+02
     -1.201 -0.3306E-03  0.1600E+02
     -1.085 -0.9761E-01  0.1599E+02
     -0.968 -0.1830E+00  0.1597E+02
     -0.851  0.1217E+02  0.1739E+02
     -0.734  0.5765E+01  0.1806E+02
     -0.617 -0.5261E+00  0.1800E+02
     -0.500 -0.1412E-01  0.1800E+02
     -0.383 -0.1389E-04  0.1800E+02
     -0.267 -0.7631E-09  0.1800E+02
     -0.150 -0.3801E-14  0.1800E+02
     -0.033 -0.3696E-12  0.1800E+02
      0.084 -0.3962E-07  0.1800E+02
      0.201 -0.2523E-03  0.1800E+02
      0.318 -0.8370E-01  0.1799E+02
      0.434 -0.3090E+00  0.1795E+02
      0.551  0.1089E+02  0.1923E+02
      0.668  0.1325E+02  0.2078E+02
      0.785  0.2679E+02  0.2391E+02
      0.902  0.1166E+01  0.2404E+02
      1.019 -0.3523E+00  0.2400E+02
      1.135 -0.1964E-02  0.2400E+02
      1.252 -0.5372E-06  0.2400E+02
      1.369 -0.8605E-11  0.2400E+02
      1.486  0.0000E+00  0.2400E+02
      1.603  0.0000E+00  0.2400E+02
      1.720  0.0000E+00  0.2400E+02
      1.837  0.0000E+00  0.2400E+02
      1.953  0.0000E+00  0.2400E+02
      2.070  0.0000E+00  0.2400E+02
      2.187  0.0000E+00  0.2400E+02
      2.304  0.0000E+00  0.2400E+02
