    3    3    1    1
  0.3333333E+03  0.1000000E-08  0.1000000E-08  0.1000000E-08  0.5000000E-15
  1.000000000000000E-004
  CAR 
 unknown system                          
     16      1     12
 
  0.0000000E+00  0.0000000E+00  0.0000000E+00  0.1000000E+01
    1      -31.155244
    2      -30.367164
    3      -14.427577
    4      -14.427571
    5      -12.715940
    6      -12.384476
    7       -9.086873
    8       -9.086870
    9       -0.874569
   10        0.531875
   11        0.709515
   12        0.710595
