<?xml version="1.0" encoding="ISO-8859-1"?>
<modeling>
 <generator>
  <i name="program" type="string">vasp </i>
  <i name="version" type="string">5.3.5  </i>
  <i name="subversion" type="string">31Mar14 (build Aug 04 2015 12:48:45) complex                          serial </i>
  <i name="platform" type="string">LinuxIFC </i>
  <i name="date" type="string">2016 05 07 </i>
  <i name="time" type="string">19:20:13 </i>
 </generator>
 <incar>
  <i type="string" name="PREC">normal</i>
  <i name="EDIFF">      0.10000000</i>
  <i type="int" name="NSW">     0</i>
  <i name="ENCUT">    350.00000000</i>
  <i type="int" name="ISMEAR">     1</i>
  <i name="SIGMA">      0.10000000</i>
  <i type="logical" name="LWAVE"> F  </i>
 </incar>
 <kpoints>
  <generation param="Monkhorst-Pack">
   <v type="int" name="divisions">       1        1        1 </v>
   <v name="usershift">      0.00000000       0.00000000       0.00000000 </v>
   <v name="genvec1">      1.00000000       0.00000000       0.00000000 </v>
   <v name="genvec2">      0.00000000       1.00000000       0.00000000 </v>
   <v name="genvec3">      0.00000000       0.00000000       1.00000000 </v>
   <v name="shift">      0.00000000       0.00000000       0.00000000 </v>
  </generation>
  <varray name="kpointlist" >
   <v>       0.00000000       0.00000000       0.00000000 </v>
  </varray>
  <varray name="weights" >
   <v>       1.00000000 </v>
  </varray>
 </kpoints>
 <parameters>
  <separator name="general" >
   <i type="string" name="SYSTEM">unknown system</i>
   <i type="logical" name="LCOMPAT"> F  </i>
  </separator>
  <separator name="electronic" >
   <i type="string" name="PREC">normal</i>
   <i name="ENMAX">    350.00000000</i>
   <i name="ENAUG">    644.87300000</i>
   <i name="EDIFF">      0.10000000</i>
   <i type="int" name="IALGO">    38</i>
   <i type="int" name="IWAVPR">     0</i>
   <i type="int" name="NBANDS">    12</i>
   <i name="NELECT">     16.00000000</i>
   <i type="int" name="TURBO">     0</i>
   <i type="int" name="IRESTART">     0</i>
   <i type="int" name="NREBOOT">     0</i>
   <i type="int" name="NMIN">     0</i>
   <i name="EREF">      0.00000000</i>
   <separator name="electronic smearing" >
    <i type="int" name="ISMEAR">     1</i>
    <i name="SIGMA">      0.10000000</i>
    <i name="KSPACING">      0.50000000</i>
    <i type="logical" name="KGAMMA"> T  </i>
   </separator>
   <separator name="electronic projectors" >
    <i type="logical" name="LREAL"> F  </i>
    <v name="ROPT">      0.00000000      0.00000000</v>
    <i type="int" name="LMAXPAW">  -100</i>
    <i type="int" name="LMAXMIX">     2</i>
    <i type="logical" name="NLSPLINE"> F  </i>
   </separator>
   <separator name="electronic startup" >
    <i type="int" name="ISTART">     0</i>
    <i type="int" name="ICHARG">     2</i>
    <i type="int" name="INIWAV">     1</i>
   </separator>
   <separator name="electronic spin" >
    <i type="int" name="ISPIN">     1</i>
    <i type="logical" name="LNONCOLLINEAR"> F  </i>
    <v name="MAGMOM">      1.00000000      1.00000000      1.00000000</v>
    <i name="NUPDOWN">     -1.00000000</i>
    <i type="logical" name="LSORBIT"> F  </i>
    <v name="SAXIS">      0.00000000      0.00000000      1.00000000</v>
    <i type="logical" name="LSPIRAL"> F  </i>
    <v name="QSPIRAL">      0.00000000      0.00000000      0.00000000</v>
    <i type="logical" name="LZEROZ"> F  </i>
   </separator>
   <separator name="electronic exchange-correlation" >
    <i type="logical" name="LASPH"> F  </i>
    <i type="logical" name="LMETAGGA"> F  </i>
   </separator>
   <separator name="electronic convergence" >
    <i type="int" name="NELM">    60</i>
    <i type="int" name="NELMDL">    -5</i>
    <i type="int" name="NELMIN">     2</i>
    <i name="ENINI">    350.00000000</i>
    <separator name="electronic convergence detail" >
     <i type="logical" name="LDIAG"> T  </i>
     <i type="logical" name="LSUBROT"> F  </i>
     <i name="WEIMIN">      0.00000000</i>
     <i name="EBREAK">      0.00208333</i>
     <i name="DEPER">      0.30000000</i>
     <i type="int" name="NRMM">     4</i>
     <i name="TIME">      0.40000000</i>
    </separator>
   </separator>
   <separator name="electronic mixer" >
    <i name="AMIX">      0.40000000</i>
    <i name="BMIX">      1.00000000</i>
    <i name="AMIN">      0.10000000</i>
    <i name="AMIX_MAG">      1.60000000</i>
    <i name="BMIX_MAG">      1.00000000</i>
    <separator name="electronic mixer details" >
     <i type="int" name="IMIX">     4</i>
     <i type="int" name="MAXMIX">   -45</i>
     <i name="WC">    100.00000000</i>
     <i type="int" name="INIMIX">     1</i>
     <i type="int" name="MIXPRE">     1</i>
     <i type="int" name="MREMOVE">     5</i>
    </separator>
   </separator>
   <separator name="electronic dipolcorrection" >
    <i type="logical" name="LDIPOL"> F  </i>
    <i type="logical" name="LMONO"> F  </i>
    <i type="int" name="IDIPOL">     0</i>
    <i name="EPSILON">      1.00000000</i>
    <v name="DIPOL">   -100.00000000   -100.00000000   -100.00000000</v>
    <i name="EFIELD">      0.00000000</i>
   </separator>
  </separator>
  <separator name="grids" >
   <i type="int" name="NGX">    48</i>
   <i type="int" name="NGY">    48</i>
   <i type="int" name="NGZ">    48</i>
   <i type="int" name="NGXF">    96</i>
   <i type="int" name="NGYF">    96</i>
   <i type="int" name="NGZF">    96</i>
   <i type="logical" name="ADDGRID"> F  </i>
  </separator>
  <separator name="ionic" >
   <i type="int" name="NSW">     0</i>
   <i type="int" name="IBRION">    -1</i>
   <i type="int" name="ISIF">     2</i>
   <i name="PSTRESS">      0.00000000</i>
   <i name="EDIFFG">      1.00000000</i>
   <i type="int" name="NFREE">     0</i>
   <i name="POTIM">      0.50000000</i>
   <i name="SMASS">     -3.00000000</i>
   <i name="SCALEE">      1.00000000</i>
  </separator>
  <separator name="ionic md" >
   <i name="TEBEG">      0.00010000</i>
   <i name="TEEND">      0.00010000</i>
   <i type="int" name="NBLOCK">     1</i>
   <i type="int" name="KBLOCK">     1</i>
   <i type="int" name="NPACO">   256</i>
   <i name="APACO">     16.00000000</i>
  </separator>
  <separator name="symmetry" >
   <i type="int" name="ISYM">     2</i>
   <i name="SYMPREC">      0.00001000</i>
  </separator>
  <separator name="dos" >
   <i type="logical" name="LORBIT"> F  </i>
   <v name="RWIGS">     -1.00000000     -1.00000000</v>
   <i type="int" name="NEDOS">   301</i>
   <i name="EMIN">     10.00000000</i>
   <i name="EMAX">    -10.00000000</i>
   <i name="EFERMI">      0.00000000</i>
  </separator>
  <separator name="writing" >
   <i type="int" name="NWRITE">     2</i>
   <i type="logical" name="LWAVE"> F  </i>
   <i type="logical" name="LCHARG"> T  </i>
   <i type="logical" name="LPARD"> F  </i>
   <i type="logical" name="LVTOT"> F  </i>
   <i type="logical" name="LVHAR"> F  </i>
   <i type="logical" name="LELF"> F  </i>
   <i type="logical" name="LOPTICS"> F  </i>
   <v name="STM">      0.00000000      0.00000000      0.00000000      0.00000000      0.00000000      0.00000000      0.00000000</v>
  </separator>
  <separator name="performance" >
   <i type="int" name="NPAR">     1</i>
   <i type="int" name="NSIM">     4</i>
   <i type="int" name="NBLK">    -1</i>
   <i type="logical" name="LPLANE"> T  </i>
   <i type="logical" name="LSCALAPACK"> F  </i>
   <i type="logical" name="LSCAAWARE"> F  </i>
   <i type="logical" name="LSCALU"> F  </i>
   <i type="logical" name="LASYNC"> F  </i>
   <i type="logical" name="LORBITALREAL"> F  </i>
  </separator>
  <separator name="miscellaneous" >
   <i type="int" name="IDIOT">     3</i>
   <i type="logical" name="LMUSIC"> F  </i>
   <v name="POMASS">     16.00000000     12.01100000</v>
   <v name="DARWINR">      0.00000000      0.00000000</v>
   <v name="DARWINV">      1.00000000      1.00000000</v>
   <i type="logical" name="LCORR"> T  </i>
  </separator>
  <i type="logical" name="GGA_COMPAT"> T  </i>
  <i type="logical" name="LBERRY"> F  </i>
  <i type="int" name="ICORELEVEL">     0</i>
  <i type="logical" name="LDAU"> F  </i>
  <i type="int" name="I_CONSTRAINED_M">     0</i>
  <separator name="electronic exchange-correlation" >
   <i type="string" name="GGA">--</i>
   <i type="int" name="VOSKOWN">     0</i>
   <i type="logical" name="LHFCALC"> F  </i>
   <i type="string" name="PRECFOCK"></i>
   <i type="logical" name="LSYMGRAD"> F  </i>
   <i type="logical" name="LHFONE"> F  </i>
   <i type="logical" name="LRHFCALC"> F  </i>
   <i type="logical" name="LTHOMAS"> F  </i>
   <i type="logical" name="LMODELHF"> F  </i>
   <i name="ENCUT4O">     -1.00000000</i>
   <i type="int" name="EXXOEP">     0</i>
   <i type="int" name="FOURORBIT">     0</i>
   <i name="AEXX">      0.00000000</i>
   <i name="HFALPHA">      0.00000000</i>
   <i name="MCALPHA">      0.00000000</i>
   <i name="ALDAX">      1.00000000</i>
   <i name="AGGAX">      1.00000000</i>
   <i name="ALDAC">      1.00000000</i>
   <i name="AGGAC">      1.00000000</i>
   <i type="int" name="NKREDX">     1</i>
   <i type="int" name="NKREDY">     1</i>
   <i type="int" name="NKREDZ">     1</i>
   <i type="logical" name="SHIFTRED"> F  </i>
   <i type="logical" name="ODDONLY"> F  </i>
   <i type="logical" name="EVENONLY"> F  </i>
   <i type="int" name="LMAXFOCK">     0</i>
   <i type="int" name="NMAXFOCKAE">     0</i>
   <i type="logical" name="LFOCKAEDFT"> F  </i>
   <i name="HFSCREEN">      0.00000000</i>
   <i name="HFSCREENC">      0.00000000</i>
   <i type="int" name="NBANDSGWLOW">     0</i>
  </separator>
  <separator name="vdW DFT" >
   <i type="logical" name="LUSE_VDW"> F  </i>
   <i name="Zab_VDW">     -0.84910000</i>
   <i name="PARAM1">      0.12340000</i>
   <i name="PARAM2">      1.00000000</i>
   <i name="PARAM3">      0.00000000</i>
  </separator>
  <separator name="model GW" >
   <i type="int" name="MODEL_GW">     0</i>
   <i name="MODEL_EPS0">    200.00000000</i>
   <i name="MODEL_ALPHA">      1.00000000</i>
  </separator>
  <separator name="linear response parameters" >
   <i type="logical" name="LEPSILON"> F  </i>
   <i type="logical" name="LRPA"> F  </i>
   <i type="logical" name="LNABLA"> F  </i>
   <i type="logical" name="LVEL"> F  </i>
   <i type="int" name="KINTER">     0</i>
   <i name="CSHIFT">      0.10000000</i>
   <i name="OMEGAMAX">     -1.00000000</i>
   <i name="DEG_THRESHOLD">      0.00200000</i>
  </separator>
  <separator name="orbital magnetization" >
   <i type="logical" name="NUCIND"> F  </i>
   <v name="MAGPOS">      0.00000000      0.00000000      0.00000000</v>
   <i type="logical" name="LNICSALL"> T  </i>
   <i type="logical" name="ORBITALMAG"> F  </i>
   <i type="logical" name="LMAGBLOCH"> F  </i>
   <i type="logical" name="LCHIMAG"> F  </i>
   <i type="logical" name="LGAUGE"> T  </i>
   <i type="int" name="MAGATOM">     0</i>
   <v name="MAGDIPOL">      0.00000000      0.00000000      0.00000000</v>
   <v name="AVECCONST">      0.00000000      0.00000000      0.00000000</v>
  </separator>
  <separator name="response functions" >
   <i type="logical" name="LADDER"> F  </i>
   <i type="logical" name="LFXC"> F  </i>
   <i type="logical" name="LHARTREE"> T  </i>
   <i type="int" name="IBSE">     0</i>
   <i type="logical" name="LTCTE"> F  </i>
   <i type="logical" name="LTETE"> F  </i>
   <i type="logical" name="LTRIPLET"> F  </i>
   <i type="logical" name="LFXCEPS"> F  </i>
   <i type="logical" name="LFXHEG"> F  </i>
   <i type="logical" name="L2ORDER"> F  </i>
   <i type="logical" name="LUSEW"> F  </i>
   <i name="ENCUTGW">     -2.00000000</i>
   <i name="ENCUTGWSOFT">     -2.00000000</i>
   <i name="ENCUTLF">     -1.00000000</i>
   <i type="int" name="LMAXMP2">    -1</i>
   <i name="SCISSOR">      0.00000000</i>
   <i type="int" name="NOMEGA">     0</i>
   <i type="int" name="NOMEGAR">     0</i>
   <i type="int" name="NBANDSGW">    -1</i>
   <i type="int" name="NBANDSO">    -1</i>
   <i type="int" name="NBANDSV">    -1</i>
   <i type="int" name="NELM">     1</i>
   <i type="int" name="DIM">     3</i>
   <i type="int" name="ANTIRES">     0</i>
   <i name="OMEGAMAX">    -30.00000000</i>
   <i name="OMEGAMIN">    -30.00000000</i>
   <i name="OMEGATL">   -200.00000000</i>
   <i type="int" name="OMEGAGRID">     0</i>
   <i name="CSHIFT">     -0.10000000</i>
   <i type="logical" name="SELFENERGY"> F  </i>
   <i type="logical" name="LSPECTRAL"> F  </i>
   <i type="logical" name="ODDONLYGW"> F  </i>
   <i type="logical" name="EVENONLYGW"> F  </i>
   <i type="int" name="NKREDLFX">     1</i>
   <i type="int" name="NKREDLFY">     1</i>
   <i type="int" name="NKREDLFZ">     1</i>
   <i type="int" name="MAXMEM">  1800</i>
   <i type="int" name="TELESCOPE">     0</i>
   <i type="int" name="TAUPAR">     1</i>
  </separator>
  <separator name="External order field" >
   <i name="OFIELD_KAPPA">      0.00000000</i>
   <v name="OFIELD_K">      0.00000000      0.00000000      0.00000000</v>
   <i name="OFIELD_Q6_NEAR">      0.00000000</i>
   <i name="OFIELD_Q6_FAR">      0.00000000</i>
   <i name="OFIELD_A">      0.00000000</i>
  </separator>
 </parameters>
 <atominfo>
  <atoms>       3 </atoms>
  <types>       2 </types>
  <array name="atoms" >
   <dimension dim="1">ion</dimension>
   <field type="string">element</field>
   <field type="int">atomtype</field>
   <set>
    <rc><c>O </c><c>   1</c></rc>
    <rc><c>O </c><c>   1</c></rc>
    <rc><c>C </c><c>   2</c></rc>
   </set>
  </array>
  <array name="atomtypes" >
   <dimension dim="1">type</dimension>
   <field type="int">atomspertype</field>
   <field type="string">element</field>
   <field>mass</field>
   <field>valence</field>
   <field type="string">pseudopotential</field>
   <set>
    <rc><c>   2</c><c>O </c><c>     16.00000000</c><c>      6.00000000</c><c>  PAW_PBE O 08Apr2002                   </c></rc>
    <rc><c>   1</c><c>C </c><c>     12.01100000</c><c>      4.00000000</c><c>  PAW_PBE C 08Apr2002                   </c></rc>
   </set>
  </array>
 </atominfo>
 <structure name="initialpos" >
  <crystal>
   <varray name="basis" >
    <v>      10.00000000       0.00000000       0.00000000 </v>
    <v>       0.00000000      10.00000000       0.00000000 </v>
    <v>       0.00000000       0.00000000      10.00000000 </v>
   </varray>
   <i name="volume">   1000.00000000 </i>
   <varray name="rec_basis" >
    <v>       0.10000000       0.00000000       0.00000000 </v>
    <v>       0.00000000       0.10000000       0.00000000 </v>
    <v>       0.00000000       0.00000000       0.10000000 </v>
   </varray>
  </crystal>
  <varray name="positions" >
   <v>       0.40000000       0.50000000       0.50000000 </v>
   <v>       0.60000000       0.50000000       0.50000000 </v>
   <v>       0.50000000       0.50000000       0.50000000 </v>
  </varray>
 </structure>
 <calculation>
  <scstep>
   <time name="dav">   40.23    3.10</time>
   <time name="total">   43.14    4.95</time>
   <energy>
    <i name="alphaZ">      1.06967730 </i>
    <i name="ewald">    433.49517367 </i>
    <i name="hartreedc">  -1196.04447145 </i>
    <i name="XCdc">     69.28775112 </i>
    <i name="pawpsdc">    801.62100016 </i>
    <i name="pawaedc">   -805.78774730 </i>
    <i name="eentropy">      0.00580205 </i>
    <i name="bandstr">   -203.17033137 </i>
    <i name="atom">   1011.07184495 </i>
    <i name="e_fr_energy">    111.54869913 </i>
    <i name="e_wo_entrp">    111.54289709 </i>
    <i name="e_0_energy">    111.54676512 </i>
   </energy>
  </scstep>
  <scstep>
   <time name="dav">   72.08    5.04</time>
   <time name="total">   72.12    5.04</time>
   <energy>
    <i name="e_fr_energy">      7.90045309 </i>
    <i name="e_wo_entrp">      7.89465519 </i>
    <i name="e_0_energy">      7.89852046 </i>
   </energy>
  </scstep>
  <scstep>
   <time name="dav">   39.55    2.59</time>
   <time name="total">   40.42    2.64</time>
   <energy>
    <i name="e_fr_energy">    -19.12600009 </i>
    <i name="e_wo_entrp">    -19.13179800 </i>
    <i name="e_0_energy">    -19.12793272 </i>
   </energy>
  </scstep>
  <scstep>
   <time name="dav">   39.54    2.82</time>
   <time name="total">   39.77    2.83</time>
   <energy>
    <i name="e_fr_energy">    -21.91196680 </i>
    <i name="e_wo_entrp">    -21.92364030 </i>
    <i name="e_0_energy">    -21.91585797 </i>
   </energy>
  </scstep>
  <scstep>
   <time name="dav">   14.06    1.22</time>
   <time name="total">   16.88    1.57</time>
   <energy>
    <i name="e_fr_energy">    -21.93165228 </i>
    <i name="e_wo_entrp">    -21.94324813 </i>
    <i name="e_0_energy">    -21.93551756 </i>
   </energy>
  </scstep>
  <scstep>
   <time name="dav">   30.71    2.27</time>
   <time name="total">   35.05    4.26</time>
   <energy>
    <i name="e_fr_energy">    -18.65271495 </i>
    <i name="e_wo_entrp">    -18.66431076 </i>
    <i name="e_0_energy">    -18.65658022 </i>
   </energy>
  </scstep>
  <scstep>
   <time name="dav">   25.82    1.91</time>
   <time name="total">   28.92    3.93</time>
   <energy>
    <i name="e_fr_energy">    -18.16279147 </i>
    <i name="e_wo_entrp">    -18.17438728 </i>
    <i name="e_0_energy">    -18.16665674 </i>
   </energy>
  </scstep>
  <scstep>
   <time name="dav">   33.10    2.34</time>
   <time name="total">   34.72    3.97</time>
   <energy>
    <i name="alphaZ">      1.06967730 </i>
    <i name="ewald">    433.49517367 </i>
    <i name="hartreedc">  -1264.16830458 </i>
    <i name="XCdc">     72.78411175 </i>
    <i name="pawpsdc">   2382.15241306 </i>
    <i name="pawaedc">  -2387.23022693 </i>
    <i name="eentropy">      0.01159581 </i>
    <i name="bandstr">   -267.30342738 </i>
    <i name="atom">   1011.07184495 </i>
    <i name="e_fr_energy">    -18.11714235 </i>
    <i name="e_wo_entrp">    -18.12873816 </i>
    <i name="e_0_energy">    -18.12100762 </i>
   </energy>
  </scstep>
  <structure>
   <crystal>
    <varray name="basis" >
     <v>      10.00000000       0.00000000       0.00000000 </v>
     <v>       0.00000000      10.00000000       0.00000000 </v>
     <v>       0.00000000       0.00000000      10.00000000 </v>
    </varray>
    <i name="volume">   1000.00000000 </i>
    <varray name="rec_basis" >
     <v>       0.10000000       0.00000000       0.00000000 </v>
     <v>       0.00000000       0.10000000       0.00000000 </v>
     <v>       0.00000000       0.00000000       0.10000000 </v>
    </varray>
   </crystal>
   <varray name="positions" >
    <v>       0.40000000       0.50000000       0.50000000 </v>
    <v>       0.60000000       0.50000000       0.50000000 </v>
    <v>       0.50000000       0.50000000       0.50000000 </v>
   </varray>
  </structure>
  <varray name="forces" >
   <v>     -33.73990311       0.00000000       0.00000000 </v>
   <v>      33.73990311       0.00000000       0.00000000 </v>
   <v>       0.00000000       0.00000000       0.00000000 </v>
  </varray>
  <varray name="stress" >
   <v>     102.63672230       0.00000000       0.00000000 </v>
   <v>       0.00000000      -8.02315950       0.00000000 </v>
   <v>       0.00000000       0.00000000      -8.02315950 </v>
  </varray>
  <energy>
   <i name="e_fr_energy">    -18.11714235 </i>
   <i name="e_wo_entrp">    -18.12100762 </i>
   <i name="e_0_energy">      0.01159581 </i>
  </energy>
  <time name="totalsc">  320.53   36.30</time>
  <eigenvalues>
   <array>
    <dimension dim="1">band</dimension>
    <dimension dim="2">kpoint</dimension>
    <dimension dim="3">spin</dimension>
    <field>eigene</field>
    <field>occ</field>
    <set>
     <set comment="spin 1">
      <set comment="kpoint 1">
       <r>  -31.1552    1.0000 </r>
       <r>  -30.3672    1.0000 </r>
       <r>  -14.4276    1.0000 </r>
       <r>  -14.4276    1.0000 </r>
       <r>  -12.7159    1.0000 </r>
       <r>  -12.3845    1.0000 </r>
       <r>   -9.0869    1.0000 </r>
       <r>   -9.0869    1.0000 </r>
       <r>   -0.8746    0.0000 </r>
       <r>    0.5319    0.0000 </r>
       <r>    0.7095    0.0000 </r>
       <r>    0.7106    0.0000 </r>
      </set>
     </set>
    </set>
   </array>
  </eigenvalues>
  <separator name="orbital magnetization" >
   <v name="MAGDIPOLOUT">      0.00000000      0.00000000      0.00000000</v>
  </separator>
  <dos>
   <i name="efermi">     -9.00268308 </i>
   <total>
    <array>
     <dimension dim="1">gridpoints</dimension>
     <dimension dim="2">spin</dimension>
     <field>energy</field>
     <field>total</field>
     <field>integrated</field>
     <set>
      <set comment="spin 1">
       <r>   -32.7485     0.0000     0.0000 </r>
       <r>   -32.6317     0.0000     0.0000 </r>
       <r>   -32.5149     0.0000     0.0000 </r>
       <r>   -32.3980     0.0000     0.0000 </r>
       <r>   -32.2812     0.0000     0.0000 </r>
       <r>   -32.1643     0.0000     0.0000 </r>
       <r>   -32.0475     0.0000     0.0000 </r>
       <r>   -31.9306     0.0000     0.0000 </r>
       <r>   -31.8138     0.0000     0.0000 </r>
       <r>   -31.6970     0.0000     0.0000 </r>
       <r>   -31.5801     0.0000     0.0000 </r>
       <r>   -31.4633    -0.0010    -0.0001 </r>
       <r>   -31.3464    -0.1790    -0.0210 </r>
       <r>   -31.2296     0.6223     0.0517 </r>
       <r>   -31.1128    13.6982     1.6522 </r>
       <r>   -30.9959     3.3769     2.0468 </r>
       <r>   -30.8791    -0.3944     2.0007 </r>
       <r>   -30.7622    -0.0057     2.0000 </r>
       <r>   -30.6454    -0.0051     1.9994 </r>
       <r>   -30.5285    -0.3788     1.9551 </r>
       <r>   -30.4117     3.1454     2.3227 </r>
       <r>   -30.2949    13.8018     3.9353 </r>
       <r>   -30.1780     0.7451     4.0223 </r>
       <r>   -30.0612    -0.1901     4.0001 </r>
       <r>   -29.9443    -0.0011     4.0000 </r>
       <r>   -29.8275     0.0000     4.0000 </r>
       <r>   -29.7107     0.0000     4.0000 </r>
       <r>   -29.5938     0.0000     4.0000 </r>
       <r>   -29.4770     0.0000     4.0000 </r>
       <r>   -29.3601     0.0000     4.0000 </r>
       <r>   -29.2433     0.0000     4.0000 </r>
       <r>   -29.1265     0.0000     4.0000 </r>
       <r>   -29.0096     0.0000     4.0000 </r>
       <r>   -28.8928     0.0000     4.0000 </r>
       <r>   -28.7759     0.0000     4.0000 </r>
       <r>   -28.6591     0.0000     4.0000 </r>
       <r>   -28.5422     0.0000     4.0000 </r>
       <r>   -28.4254     0.0000     4.0000 </r>
       <r>   -28.3086     0.0000     4.0000 </r>
       <r>   -28.1917     0.0000     4.0000 </r>
       <r>   -28.0749     0.0000     4.0000 </r>
       <r>   -27.9580     0.0000     4.0000 </r>
       <r>   -27.8412     0.0000     4.0000 </r>
       <r>   -27.7244     0.0000     4.0000 </r>
       <r>   -27.6075     0.0000     4.0000 </r>
       <r>   -27.4907     0.0000     4.0000 </r>
       <r>   -27.3738     0.0000     4.0000 </r>
       <r>   -27.2570     0.0000     4.0000 </r>
       <r>   -27.1401     0.0000     4.0000 </r>
       <r>   -27.0233     0.0000     4.0000 </r>
       <r>   -26.9065     0.0000     4.0000 </r>
       <r>   -26.7896     0.0000     4.0000 </r>
       <r>   -26.6728     0.0000     4.0000 </r>
       <r>   -26.5559     0.0000     4.0000 </r>
       <r>   -26.4391     0.0000     4.0000 </r>
       <r>   -26.3223     0.0000     4.0000 </r>
       <r>   -26.2054     0.0000     4.0000 </r>
       <r>   -26.0886     0.0000     4.0000 </r>
       <r>   -25.9717     0.0000     4.0000 </r>
       <r>   -25.8549     0.0000     4.0000 </r>
       <r>   -25.7381     0.0000     4.0000 </r>
       <r>   -25.6212     0.0000     4.0000 </r>
       <r>   -25.5044     0.0000     4.0000 </r>
       <r>   -25.3875     0.0000     4.0000 </r>
       <r>   -25.2707     0.0000     4.0000 </r>
       <r>   -25.1538     0.0000     4.0000 </r>
       <r>   -25.0370     0.0000     4.0000 </r>
       <r>   -24.9202     0.0000     4.0000 </r>
       <r>   -24.8033     0.0000     4.0000 </r>
       <r>   -24.6865     0.0000     4.0000 </r>
       <r>   -24.5696     0.0000     4.0000 </r>
       <r>   -24.4528     0.0000     4.0000 </r>
       <r>   -24.3360     0.0000     4.0000 </r>
       <r>   -24.2191     0.0000     4.0000 </r>
       <r>   -24.1023     0.0000     4.0000 </r>
       <r>   -23.9854     0.0000     4.0000 </r>
       <r>   -23.8686     0.0000     4.0000 </r>
       <r>   -23.7517     0.0000     4.0000 </r>
       <r>   -23.6349     0.0000     4.0000 </r>
       <r>   -23.5181     0.0000     4.0000 </r>
       <r>   -23.4012     0.0000     4.0000 </r>
       <r>   -23.2844     0.0000     4.0000 </r>
       <r>   -23.1675     0.0000     4.0000 </r>
       <r>   -23.0507     0.0000     4.0000 </r>
       <r>   -22.9339     0.0000     4.0000 </r>
       <r>   -22.8170     0.0000     4.0000 </r>
       <r>   -22.7002     0.0000     4.0000 </r>
       <r>   -22.5833     0.0000     4.0000 </r>
       <r>   -22.4665     0.0000     4.0000 </r>
       <r>   -22.3497     0.0000     4.0000 </r>
       <r>   -22.2328     0.0000     4.0000 </r>
       <r>   -22.1160     0.0000     4.0000 </r>
       <r>   -21.9991     0.0000     4.0000 </r>
       <r>   -21.8823     0.0000     4.0000 </r>
       <r>   -21.7654     0.0000     4.0000 </r>
       <r>   -21.6486     0.0000     4.0000 </r>
       <r>   -21.5318     0.0000     4.0000 </r>
       <r>   -21.4149     0.0000     4.0000 </r>
       <r>   -21.2981     0.0000     4.0000 </r>
       <r>   -21.1812     0.0000     4.0000 </r>
       <r>   -21.0644     0.0000     4.0000 </r>
       <r>   -20.9476     0.0000     4.0000 </r>
       <r>   -20.8307     0.0000     4.0000 </r>
       <r>   -20.7139     0.0000     4.0000 </r>
       <r>   -20.5970     0.0000     4.0000 </r>
       <r>   -20.4802     0.0000     4.0000 </r>
       <r>   -20.3633     0.0000     4.0000 </r>
       <r>   -20.2465     0.0000     4.0000 </r>
       <r>   -20.1297     0.0000     4.0000 </r>
       <r>   -20.0128     0.0000     4.0000 </r>
       <r>   -19.8960     0.0000     4.0000 </r>
       <r>   -19.7791     0.0000     4.0000 </r>
       <r>   -19.6623     0.0000     4.0000 </r>
       <r>   -19.5455     0.0000     4.0000 </r>
       <r>   -19.4286     0.0000     4.0000 </r>
       <r>   -19.3118     0.0000     4.0000 </r>
       <r>   -19.1949     0.0000     4.0000 </r>
       <r>   -19.0781     0.0000     4.0000 </r>
       <r>   -18.9612     0.0000     4.0000 </r>
       <r>   -18.8444     0.0000     4.0000 </r>
       <r>   -18.7276     0.0000     4.0000 </r>
       <r>   -18.6107     0.0000     4.0000 </r>
       <r>   -18.4939     0.0000     4.0000 </r>
       <r>   -18.3770     0.0000     4.0000 </r>
       <r>   -18.2602     0.0000     4.0000 </r>
       <r>   -18.1434     0.0000     4.0000 </r>
       <r>   -18.0265     0.0000     4.0000 </r>
       <r>   -17.9097     0.0000     4.0000 </r>
       <r>   -17.7928     0.0000     4.0000 </r>
       <r>   -17.6760     0.0000     4.0000 </r>
       <r>   -17.5592     0.0000     4.0000 </r>
       <r>   -17.4423     0.0000     4.0000 </r>
       <r>   -17.3255     0.0000     4.0000 </r>
       <r>   -17.2086     0.0000     4.0000 </r>
       <r>   -17.0918     0.0000     4.0000 </r>
       <r>   -16.9749     0.0000     4.0000 </r>
       <r>   -16.8581     0.0000     4.0000 </r>
       <r>   -16.7413     0.0000     4.0000 </r>
       <r>   -16.6244     0.0000     4.0000 </r>
       <r>   -16.5076     0.0000     4.0000 </r>
       <r>   -16.3907     0.0000     4.0000 </r>
       <r>   -16.2739     0.0000     4.0000 </r>
       <r>   -16.1571     0.0000     4.0000 </r>
       <r>   -16.0402     0.0000     4.0000 </r>
       <r>   -15.9234     0.0000     4.0000 </r>
       <r>   -15.8065     0.0000     4.0000 </r>
       <r>   -15.6897     0.0000     4.0000 </r>
       <r>   -15.5728     0.0000     4.0000 </r>
       <r>   -15.4560     0.0000     4.0000 </r>
       <r>   -15.3392     0.0000     4.0000 </r>
       <r>   -15.2223     0.0000     4.0000 </r>
       <r>   -15.1055     0.0000     4.0000 </r>
       <r>   -14.9886     0.0000     4.0000 </r>
       <r>   -14.8718     0.0000     4.0000 </r>
       <r>   -14.7550    -0.0006     3.9999 </r>
       <r>   -14.6381    -0.1912     3.9776 </r>
       <r>   -14.5213    -0.4003     3.9308 </r>
       <r>   -14.4044    24.2183     6.7605 </r>
       <r>   -14.2876    11.6962     8.1271 </r>
       <r>   -14.1708    -1.0589     8.0034 </r>
       <r>   -14.0539    -0.0290     8.0000 </r>
       <r>   -13.9371     0.0000     8.0000 </r>
       <r>   -13.8202     0.0000     8.0000 </r>
       <r>   -13.7034     0.0000     8.0000 </r>
       <r>   -13.5865     0.0000     8.0000 </r>
       <r>   -13.4697     0.0000     8.0000 </r>
       <r>   -13.3529     0.0000     8.0000 </r>
       <r>   -13.2360     0.0000     8.0000 </r>
       <r>   -13.1192     0.0000     8.0000 </r>
       <r>   -13.0023    -0.0033     7.9996 </r>
       <r>   -12.8855    -0.3174     7.9625 </r>
       <r>   -12.7687     2.2954     8.2307 </r>
       <r>   -12.6518    14.0669     9.8743 </r>
       <r>   -12.5350     0.8469     9.9733 </r>
       <r>   -12.4181     4.2067    10.4648 </r>
       <r>   -12.3013    13.1010    11.9955 </r>
       <r>   -12.1844     0.1751    12.0160 </r>
       <r>   -12.0676    -0.1361    12.0001 </r>
       <r>   -11.9508    -0.0006    12.0000 </r>
       <r>   -11.8339     0.0000    12.0000 </r>
       <r>   -11.7171     0.0000    12.0000 </r>
       <r>   -11.6002     0.0000    12.0000 </r>
       <r>   -11.4834     0.0000    12.0000 </r>
       <r>   -11.3666     0.0000    12.0000 </r>
       <r>   -11.2497     0.0000    12.0000 </r>
       <r>   -11.1329     0.0000    12.0000 </r>
       <r>   -11.0160     0.0000    12.0000 </r>
       <r>   -10.8992     0.0000    12.0000 </r>
       <r>   -10.7824     0.0000    12.0000 </r>
       <r>   -10.6655     0.0000    12.0000 </r>
       <r>   -10.5487     0.0000    12.0000 </r>
       <r>   -10.4318     0.0000    12.0000 </r>
       <r>   -10.3150     0.0000    12.0000 </r>
       <r>   -10.1981     0.0000    12.0000 </r>
       <r>   -10.0813     0.0000    12.0000 </r>
       <r>    -9.9645     0.0000    12.0000 </r>
       <r>    -9.8476     0.0000    12.0000 </r>
       <r>    -9.7308     0.0000    12.0000 </r>
       <r>    -9.6139     0.0000    12.0000 </r>
       <r>    -9.4971     0.0000    12.0000 </r>
       <r>    -9.3803    -0.0046    11.9995 </r>
       <r>    -9.2634    -0.5362    11.9368 </r>
       <r>    -9.1466     3.3253    12.3254 </r>
       <r>    -9.0297    28.2584    15.6271 </r>
       <r>    -8.9129     3.7682    16.0674 </r>
       <r>    -8.7960    -0.5714    16.0006 </r>
       <r>    -8.6792    -0.0053    16.0000 </r>
       <r>    -8.5624     0.0000    16.0000 </r>
       <r>    -8.4455     0.0000    16.0000 </r>
       <r>    -8.3287     0.0000    16.0000 </r>
       <r>    -8.2118     0.0000    16.0000 </r>
       <r>    -8.0950     0.0000    16.0000 </r>
       <r>    -7.9782     0.0000    16.0000 </r>
       <r>    -7.8613     0.0000    16.0000 </r>
       <r>    -7.7445     0.0000    16.0000 </r>
       <r>    -7.6276     0.0000    16.0000 </r>
       <r>    -7.5108     0.0000    16.0000 </r>
       <r>    -7.3939     0.0000    16.0000 </r>
       <r>    -7.2771     0.0000    16.0000 </r>
       <r>    -7.1603     0.0000    16.0000 </r>
       <r>    -7.0434     0.0000    16.0000 </r>
       <r>    -6.9266     0.0000    16.0000 </r>
       <r>    -6.8097     0.0000    16.0000 </r>
       <r>    -6.6929     0.0000    16.0000 </r>
       <r>    -6.5761     0.0000    16.0000 </r>
       <r>    -6.4592     0.0000    16.0000 </r>
       <r>    -6.3424     0.0000    16.0000 </r>
       <r>    -6.2255     0.0000    16.0000 </r>
       <r>    -6.1087     0.0000    16.0000 </r>
       <r>    -5.9919     0.0000    16.0000 </r>
       <r>    -5.8750     0.0000    16.0000 </r>
       <r>    -5.7582     0.0000    16.0000 </r>
       <r>    -5.6413     0.0000    16.0000 </r>
       <r>    -5.5245     0.0000    16.0000 </r>
       <r>    -5.4076     0.0000    16.0000 </r>
       <r>    -5.2908     0.0000    16.0000 </r>
       <r>    -5.1740     0.0000    16.0000 </r>
       <r>    -5.0571     0.0000    16.0000 </r>
       <r>    -4.9403     0.0000    16.0000 </r>
       <r>    -4.8234     0.0000    16.0000 </r>
       <r>    -4.7066     0.0000    16.0000 </r>
       <r>    -4.5898     0.0000    16.0000 </r>
       <r>    -4.4729     0.0000    16.0000 </r>
       <r>    -4.3561     0.0000    16.0000 </r>
       <r>    -4.2392     0.0000    16.0000 </r>
       <r>    -4.1224     0.0000    16.0000 </r>
       <r>    -4.0055     0.0000    16.0000 </r>
       <r>    -3.8887     0.0000    16.0000 </r>
       <r>    -3.7719     0.0000    16.0000 </r>
       <r>    -3.6550     0.0000    16.0000 </r>
       <r>    -3.5382     0.0000    16.0000 </r>
       <r>    -3.4213     0.0000    16.0000 </r>
       <r>    -3.3045     0.0000    16.0000 </r>
       <r>    -3.1877     0.0000    16.0000 </r>
       <r>    -3.0708     0.0000    16.0000 </r>
       <r>    -2.9540     0.0000    16.0000 </r>
       <r>    -2.8371     0.0000    16.0000 </r>
       <r>    -2.7203     0.0000    16.0000 </r>
       <r>    -2.6035     0.0000    16.0000 </r>
       <r>    -2.4866     0.0000    16.0000 </r>
       <r>    -2.3698     0.0000    16.0000 </r>
       <r>    -2.2529     0.0000    16.0000 </r>
       <r>    -2.1361     0.0000    16.0000 </r>
       <r>    -2.0192     0.0000    16.0000 </r>
       <r>    -1.9024     0.0000    16.0000 </r>
       <r>    -1.7856     0.0000    16.0000 </r>
       <r>    -1.6687     0.0000    16.0000 </r>
       <r>    -1.5519     0.0000    16.0000 </r>
       <r>    -1.4350     0.0000    16.0000 </r>
       <r>    -1.3182     0.0000    16.0000 </r>
       <r>    -1.2014    -0.0003    16.0000 </r>
       <r>    -1.0845    -0.0976    15.9886 </r>
       <r>    -0.9677    -0.1830    15.9672 </r>
       <r>    -0.8508    12.1730    17.3895 </r>
       <r>    -0.7340     5.7653    18.0631 </r>
       <r>    -0.6171    -0.5261    18.0017 </r>
       <r>    -0.5003    -0.0141    18.0000 </r>
       <r>    -0.3835     0.0000    18.0000 </r>
       <r>    -0.2666     0.0000    18.0000 </r>
       <r>    -0.1498     0.0000    18.0000 </r>
       <r>    -0.0329     0.0000    18.0000 </r>
       <r>     0.0839     0.0000    18.0000 </r>
       <r>     0.2007    -0.0003    18.0000 </r>
       <r>     0.3176    -0.0837    17.9902 </r>
       <r>     0.4344    -0.3090    17.9541 </r>
       <r>     0.5513    10.8939    19.2269 </r>
       <r>     0.6681    13.2514    20.7753 </r>
       <r>     0.7849    26.7878    23.9052 </r>
       <r>     0.9018     1.1657    24.0414 </r>
       <r>     1.0186    -0.3523    24.0002 </r>
       <r>     1.1355    -0.0020    24.0000 </r>
       <r>     1.2523     0.0000    24.0000 </r>
       <r>     1.3692     0.0000    24.0000 </r>
       <r>     1.4860     0.0000    24.0000 </r>
       <r>     1.6028     0.0000    24.0000 </r>
       <r>     1.7197     0.0000    24.0000 </r>
       <r>     1.8365     0.0000    24.0000 </r>
       <r>     1.9534     0.0000    24.0000 </r>
       <r>     2.0702     0.0000    24.0000 </r>
       <r>     2.1870     0.0000    24.0000 </r>
       <r>     2.3039     0.0000    24.0000 </r>
      </set>
     </set>
    </array>
   </total>
  </dos>
 </calculation>
 <structure name="finalpos" >
  <crystal>
   <varray name="basis" >
    <v>      10.00000000       0.00000000       0.00000000 </v>
    <v>       0.00000000      10.00000000       0.00000000 </v>
    <v>       0.00000000       0.00000000      10.00000000 </v>
   </varray>
   <i name="volume">   1000.00000000 </i>
   <varray name="rec_basis" >
    <v>       0.10000000       0.00000000       0.00000000 </v>
    <v>       0.00000000       0.10000000       0.00000000 </v>
    <v>       0.00000000       0.00000000       0.10000000 </v>
   </varray>
  </crystal>
  <varray name="positions" >
   <v>       0.40000000       0.50000000       0.50000000 </v>
   <v>       0.60000000       0.50000000       0.50000000 </v>
   <v>       0.50000000       0.50000000       0.50000000 </v>
  </varray>
 </structure>
</modeling>
