unknown system                          
           1
    10.000000    0.000000    0.000000
     0.000000   10.000000    0.000000
     0.000000    0.000000   10.000000
   O    C 
   2   1
Direct configuration=     1
   0.40000000  0.50000000  0.50000000
   0.60000000  0.50000000  0.50000000
   0.50000000  0.50000000  0.50000000
